 Gaussian 03, Revision B.05,
 Gaussian 03:  x86-Linux-G03RevB.05  8-Nov-2003

 ----------------------------------------------------------------------
 # b3lyp/6-31g* pop=(full,nboread) gfprint guess=read symm=(loose) geom
 =check iop(2/17=2,2/18=1)
 ----------------------------------------------------------------------

 InChI=1/H2O4S/c1-5(2,3)4/h(H2,1,2,3,4)
 --------------------------------------
 Redundant internal coordinates taken from checkpoint file:
 h2so4.chk
 Charge =  0 Multiplicity = 1

                         Standard orientation:
 ---------------------------------------------------------------------
 Center     Atomic     Atomic              Coordinates (Angstroms)
 Number     Number      Type              X           Y           Z
 ---------------------------------------------------------------------
    1         16             0        0.000000    0.000000    0.165897
    2          8             0        0.000000    1.281048    0.837341
    3          8             0        0.000000   -1.281048    0.837341
    4          8             0       -1.260808    0.044411   -0.863695
    5          1             0       -1.472842   -0.874940   -1.116338
    6          8             0        1.260808   -0.044411   -0.863695
    7          1             0        1.472842    0.874940   -1.116338
 ---------------------------------------------------------------------

 SCF Done:  E(RB+HF-LYP) =  -700.203051940     A.U. after    1 cycles

 The electronic state is 1-A.
 Alpha  occ. eigenvalues --  -89.18674 -19.23401 -19.23401 -19.18305 -19.18304
 Alpha  occ. eigenvalues --   -8.20544  -6.17116  -6.17035  -6.16869  -1.19856
 Alpha  occ. eigenvalues --   -1.08144  -1.06179  -1.04894  -0.70196  -0.62544
 Alpha  occ. eigenvalues --   -0.53935  -0.51777  -0.48802  -0.45236  -0.41597
 Alpha  occ. eigenvalues --   -0.38893  -0.38305  -0.34690  -0.34501  -0.33466
 Alpha virt. eigenvalues --    0.00279   0.04569   0.07705   0.07742   0.08494
 Alpha virt. eigenvalues --    0.14134   0.30855   0.32102   0.35972   0.39603
 Alpha virt. eigenvalues --    0.56730   0.58331   0.72346   0.75427   0.77219

 Mulliken atomic charges:
              1
     1  S    1.269892
     2  O   -0.475546
     3  O   -0.475546
     4  O   -0.607800
     5  H    0.448400
     6  O   -0.607800
     7  H    0.448400
 Sum of Mulliken charges=   0.00000

 Dipole moment (field-independent basis, Debye):
    X=     0.0000    Y=     0.0000    Z=    -3.0306  Tot=     3.0306
 Quadrupole moment (field-independent basis, Debye-Ang):
   XX=   -31.9171   YY=   -36.3110   ZZ=   -34.4861
   XY=     5.7171   XZ=     0.0000   YZ=     0.0000

 Summary of Natural Population Analysis:

                                     Natural Population
             Natural    ---------------------------------------------
  Atom No    Charge        Core      Valence    Rydberg      Total
 --------------------------------------------------------------------
    S  1    2.57261      9.99930     3.21446    0.21363    13.42739
    O  2   -0.90306      1.99988     6.87893    0.02425     8.90306
    O  3   -0.90306      1.99988     6.87893    0.02425     8.90306
    O  4   -0.90666      1.99988     6.88949    0.01729     8.90666
    H  5    0.52341      0.00000     0.47593    0.00065     0.47659
    O  6   -0.90666      1.99988     6.88949    0.01729     8.90666
    H  7    0.52341      0.00000     0.47593    0.00065     0.47659
 ====================================================================
 * Total *  0.00000     17.99882    31.70316    0.29802    50.00000

 Normal termination of Gaussian 03 at Sat Apr 11 14:55:31 2009.
