 Gaussian 03, Revision B.05,
 Gaussian 03:  x86-Linux-G03RevB.05  8-Nov-2003

 ---------------------------------------------------------------
 # b3lyp/6-31g* pop=(full,nboread) gfprint geom=check guess=read
 ---------------------------------------------------------------

 ------------------------------------
 No Z-matrix found on checkpoint file.
 Cartesian coordinates read from the checkpoint file:
 aceticacid.chk
 Charge =  0 Multiplicity = 1

                         Standard orientation:
 ---------------------------------------------------------------------
 Center     Atomic     Atomic              Coordinates (Angstroms)
 Number     Number      Type              X           Y           Z
 ---------------------------------------------------------------------
    1          6             0        1.061967   -0.914487    0.000000
    2          6             0        0.000000    0.156266    0.000000
    3          8             0       -1.246728   -0.384335    0.000000
    4          8             0        0.189963    1.351233    0.000000
    5          1             0        2.047962   -0.449574    0.000000
    6          1             0        0.949488   -1.553489    0.881961
    7          1             0        0.949488   -1.553489   -0.881961
    8          1             0       -1.864622    0.370691    0.000000
 ---------------------------------------------------------------------

 SCF Done:  E(RB+HF-LYP) =  -229.081799464     A.U. after    1 cycles

 The electronic state is 1-A'.
 Alpha  occ. eigenvalues --  -19.19565 -19.13911 -10.32364 -10.20055  -1.10413
 Alpha  occ. eigenvalues --   -1.01398  -0.75838  -0.60947  -0.48840  -0.47480
 Alpha  occ. eigenvalues --   -0.46710  -0.41241  -0.39326  -0.39195  -0.31846
 Alpha  occ. eigenvalues --   -0.27546
 Alpha virt. eigenvalues --    0.00979   0.07432   0.11545   0.15617   0.16983
 Alpha virt. eigenvalues --    0.21391   0.28864   0.33186   0.52252   0.54104
 Alpha virt. eigenvalues --    0.58308   0.60387   0.62026   0.67084   0.76108

 Mulliken atomic charges:
              1
     1  C   -0.515223
     2  C    0.555712
     3  O   -0.556236
     4  O   -0.450648
     5  H    0.186177
     6  H    0.185930
     7  H    0.185930
     8  H    0.408356
 Sum of Mulliken charges=   0.00000

 Dipole moment (field-independent basis, Debye):
    X=    -0.4009    Y=    -1.5264    Z=     0.0000  Tot=     1.5782
 Quadrupole moment (field-independent basis, Debye-Ang):
   XX=   -19.8143   YY=   -26.6498   ZZ=   -22.6899
   XY=    -3.7004   XZ=     0.0000   YZ=     0.0000

 Summary of Natural Population Analysis:

                                     Natural Population
             Natural    ---------------------------------------------
  Atom No    Charge        Core      Valence    Rydberg      Total
 --------------------------------------------------------------------
    C  1   -0.78359      1.99933     4.77663    0.00763     6.78359
    C  2    0.82334      1.99951     3.13148    0.04567     5.17666
    O  3   -0.71744      1.99979     6.70348    0.01417     8.71744
    O  4   -0.59500      1.99979     6.57744    0.01777     8.59500
    H  5    0.25813      0.00000     0.74093    0.00093     0.74187
    H  6    0.25926      0.00000     0.73990    0.00084     0.74074
    H  7    0.25926      0.00000     0.73990    0.00084     0.74074
    H  8    0.49604      0.00000     0.50048    0.00348     0.50396
 ====================================================================
 * Total *  0.00000      7.99842    23.91023    0.09134    32.00000

 Normal termination of Gaussian 03 at Sat Apr 11 14:45:02 2009.
