 Gaussian 94, Revision C.3,

 ---------------------
 # HF/STO-3G fopt test
 ---------------------

 SCF Done:  E(RHF) =  -113.549192504     A.U. after   10 cycles
 SCF Done:  E(RHF) =  -113.549193145     A.U. after    7 cycles
 Optimization completed.
    -- Stationary point found.
 Normal termination of Gaussian 94
 Gaussian 94:  CrayXMP-Unicos-G94RevC.3 26-Sep-1995

 ------------------------------------------------
 # HF/STO-3G freq geom=checkpoint gues=check test
 ------------------------------------------------

                   Standard orientation:
 ----------------------------------------------------------
 Center     Atomic              Coordinates (Angstroms)
 Number     Number             X           Y           Z
 ----------------------------------------------------------
    1          6           0.050065    0.665047    0.000000
    2          8           0.050065   -0.767876    0.000000
    3          1          -0.912101   -1.005927    0.000000
    4          1           1.090132    0.995415    0.000000
    5          1          -0.439468    1.081620    0.886605
    6          1          -0.439468    1.081620   -0.886605
 ----------------------------------------------------------

 SCF Done:  E(RHF) =  -113.549193145     A.U. after    1 cycles

                     1                      2                      3
                    A"                     A'                     A"
 Frequencies --   399.1507              1208.5382              1308.3147
 Red. masses --     1.0663                 1.1979                 1.2543
 Frc consts  --     0.1001                 1.0308                 1.2650
 IR Inten    --    74.8880                18.0331                 4.9805
 Raman Activ --     5.7940                 1.0563                 4.3222

                     4                      5                      6
                    A'                     A'                     A'
 Frequencies --  1316.8418              1722.9519              1769.0900
 Red. masses --     3.4861                 1.2321                 1.2585
 Frc consts  --     3.5617                 2.1550                 2.3207
 IR Inten    --     2.2622                15.0292                 4.0649
 Raman Activ --     9.9556                 8.0580                 3.0857

                     7                      8                      9
                    A"                     A'                     A'
 Frequencies --  1814.3408              1830.4814              3516.5387
 Red. masses --     1.0524                 1.0474                 1.0381
 Frc consts  --     2.0411                 2.0677                 7.5636
 IR Inten    --     2.1785                 1.8971                 6.7145
 Raman Activ --    17.3739                17.1688                38.0879

                    10                     11                     12
                    A"                     A'                     A'
 Frequencies --  3679.3661              3716.4556              4227.3246
 Red. masses --     1.1081                 1.1084                 1.0679
 Frc consts  --     8.8383                 9.0201                11.2442
 IR Inten    --    10.4641                 1.5752                24.8459
 Raman Activ --    26.3141                30.1485                46.5771

 - Thermochemistry -
 -------------------
 Temperature   298.150 Kelvin.  Pressure   1.00000 Atm.
 Atom  1 has atomic number  6 and mass  12.00000

 Molecular mass:    32.02621 amu.
 Principle axes and moments of inertia in atomic units:
                           1         2         3
     EIGENVALUES --    14.34469  73.58406  76.61248
           X            0.05380   0.99855   0.00000
           Y            0.99855  -0.05380   0.00000
           Z            0.00000   0.00000   1.00000
 THIS MOLECULE IS AN ASYMMETRIC TOP.
 ROTATIONAL SYMMETRY NUMBER  1.
 ROTATIONAL TEMPERATURES (KELVIN)      6.03801     1.17707     1.13054
 ROTATIONAL CONSTANTS (GHZ)          125.81253    24.52625    23.55675
 Zero-point vibrational energy     158561.4 (Joules/Mol)
                                   37.89709 (Kcal/Mol)
 WARNING-- EXPLICIT CONSIDERATION OF   1 DEGREES OF FREEDOM AS
           VIBRATIONS MAY CAUSE SIGNIFICANT ERROR
 VIBRATIONAL TEMPERATURES:    574.29  1738.81  1882.36  1894.63  2478.93
          (KELVIN)           2545.31  2610.42  2633.64  5059.49  5293.76
                             5347.12  6082.14

 Zero-point correction=                           0.060393 (Hartree/Particle)
 Thermal correction to Energy=                    0.063579
 Thermal correction to Enthalpy=                  0.064523
 Thermal correction to Gibbs Free Energy=         0.037713
 Sum of electronic and zero-point Energies=           -113.488800
 Sum of electronic and thermal Energies=              -113.485614
 Sum of electronic and thermal Enthalpies=            -113.484670
 Sum of electronic and thermal Free Energies=         -113.511480

                         E                  CV                 S
                      KCAL/MOL        CAL/MOL-KELVIN    CAL/MOL-KELVIN
 TOTAL                   39.896              8.026             56.427
 ELECTRONIC               0.000              0.000              0.000
 TRANSLATIONAL            0.889              2.981             36.324
 ROTATIONAL               0.889              2.981             19.031
 VIBRATIONAL             38.119              2.064              1.072
 VIBRATION  1             0.765              1.472              0.966
                       Q            LOG10(Q)             LN(Q)
 TOTAL BOT       0.450189E-17        -17.346605        -40.106749
 TOTAL V=0       0.270390E+11         10.431990         23.855830
 VIB (BOT)       0.196309E-27        -27.707061        -63.797865
 VIB (BOT)  1    0.446819E+00         -0.349868         -0.805601
 VIB (V=0)       0.117906E+01          0.071535          0.164715
 VIB (V=0)  1    0.117056E+01          0.068393          0.157480
 ELECTRONIC      0.100000E+01          0.000000          0.000000
 TRANSLATIONAL   0.712392E+07          6.852719         15.778968
 ROTATIONAL      0.321912E+04          3.507737          8.076862
 ***** Axes restored to original set *****
 -------------------------------------------------------------------
 Center     Atomic                   Forces (Hartrees/Bohr)
 Number     Number              X              Y              Z
 -------------------------------------------------------------------
    1          6          -0.000276556   -0.000081316    0.000000000
    2          8           0.000030284   -0.000194811    0.000000000
    3          1           0.000059367    0.000130387    0.000000000
    4          1           0.000151081    0.000077823    0.000000000
    5          1           0.000017912    0.000033958   -0.000045226
    6          1           0.000017912    0.000033958    0.000045226
 -------------------------------------------------------------------
 Cartesian Forces:  Max     0.000276556 RMS     0.000099557
 Internal  Forces:  Max     0.000210367 RMS     0.000080988

 GradGradGradGradGradGradGradGradGradGradGradGradGradGradGradGradGradGrad
 Berny optimization.
 Search for a local minimum.
 Step number   1 out of a maximum of  25
 All quantities printed in internal units (Hartrees-Bohrs-Radians)
 Second derivative matrix not updated -- analytic derivatives used.
 The second derivative matrix:
                          R1        R2        R3        R4        R5
           R1           0.52498
           R2          -0.02470   0.64099
           R3           0.00918  -0.00161   0.47567
           R4           0.01400   0.00048  -0.00417   0.46324
           R5           0.01400   0.00048  -0.00417  -0.00374   0.46324
           A1           0.07002   0.02097   0.00269  -0.00385  -0.00385
           A2           0.01960   0.00763   0.00515  -0.00490  -0.00490
           A3           0.02930  -0.00456  -0.00446   0.00272  -0.00445
           A4          -0.02650   0.00032   0.00465   0.00576  -0.00524
           A5           0.02930  -0.00456  -0.00446  -0.00445   0.00272
           A6          -0.02650   0.00032   0.00465  -0.00524   0.00576
           A7          -0.02913   0.00116  -0.00473   0.00609   0.00609
           D1           0.00000   0.00000   0.00000   0.00516  -0.00516
           D2           0.00271  -0.00263  -0.00642  -0.00037   0.00708
           D3          -0.00271   0.00263   0.00642  -0.00708   0.00037
                          A1        A2        A3        A4        A5
           A1           0.31466
           A2           0.03667   0.17204
           A3          -0.01318  -0.03559   0.17162
           A4          -0.00667  -0.05114  -0.04793   0.10090
           A5          -0.01318  -0.03559  -0.03792  -0.00190   0.17162
           A6          -0.00667  -0.05114  -0.00190   0.00269  -0.04793
           A7           0.00328  -0.00077  -0.05419   0.00374  -0.05419
           D1           0.00000   0.00000   0.02345   0.03111  -0.02345
           D2          -0.00766  -0.02702   0.00421  -0.03190   0.02423
           D3           0.00766   0.02702  -0.02423   0.00031  -0.00421
                          A6        A7        D1        D2        D3
           A6           0.10090
           A7           0.00374   0.10393
           D1          -0.03111   0.00000   0.03672
           D2          -0.00031   0.02787  -0.01544   0.03881
           D3           0.03190  -0.02787  -0.01544  -0.01897   0.03881
     Eigenvalues ---    0.00483   0.12953   0.13039   0.19349   0.21088
     Eigenvalues ---    0.22823   0.31357   0.45577   0.46784   0.47852
     Eigenvalues ---    0.55793   0.647151000.000001000.000001000.00000
 Angle between quadratic step and forces=  18.79 degrees.
 Linear search not attempted -- first point.
 Iteration  1 RMS(Cart)=  0.00026673 RMS(Int)=  0.00000010
 Iteration  2 RMS(Cart)=  0.00000008 RMS(Int)=  0.00000002
 TrRot=  0.000000  0.000000  0.000000  0.000000  0.000000  0.000000
 Variable       Old X    -DE/DX   Delta X   Delta X   Delta X     New X
                                 (Linear)    (Quad)   (Total)
    R1        2.70783   0.00006   0.00000   0.00015   0.00015   2.70798
    R2        1.87305  -0.00009   0.00000  -0.00011  -0.00011   1.87294
    R3        2.06221   0.00017   0.00000   0.00035   0.00035   2.06257
    R4        2.06944  -0.00003   0.00000  -0.00007  -0.00007   2.06937
    R5        2.06944  -0.00003   0.00000  -0.00007  -0.00007   2.06937
    A1        1.81334  -0.00021   0.00000  -0.00071  -0.00071   1.81262
    A2        1.87836   0.00002   0.00000   0.00020   0.00020   1.87856
    A3        1.96102   0.00005   0.00000   0.00019   0.00019   1.96121
    A4        1.88692  -0.00004   0.00000  -0.00018  -0.00018   1.88674
    A5        1.96102   0.00005   0.00000   0.00019   0.00019   1.96121
    A6        1.88692  -0.00004   0.00000  -0.00018  -0.00018   1.88674
    A7        1.88698  -0.00006   0.00000  -0.00024  -0.00024   1.88674
    D1        3.14159   0.00000   0.00000   0.00000   0.00000   3.14159
    D2        1.06631   0.00000   0.00000  -0.00002  -0.00002   1.06629
    D3       -1.06631   0.00000   0.00000   0.00002   0.00002  -1.06629
         Item               Value     Threshold  Converged?
 Maximum Force            0.000210     0.000450     YES
 RMS     Force            0.000081     0.000300     YES
 Maximum Displacement     0.000674     0.001800     YES
 RMS     Displacement     0.000267     0.001200     YES
 Predicted change in Energy=-1.422289E-07
 Optimization completed.
    -- Stationary point found.
                         ----------------------------
                         !   Optimized Parameters   !
                         ! (Angstroms and Degrees)  !
 ------------------------                            -------------------------
 ! Name  Definition              Value          Derivative Info.             !
 -----------------------------------------------------------------------------
 ! R1    R(2,1)                  1.4329         -DE/DX =    0.0001           !
 ! R2    R(3,2)                  0.9912         -DE/DX =   -0.0001           !
 ! R3    R(4,1)                  1.0913         -DE/DX =    0.0002           !
 ! R4    R(5,1)                  1.0951         -DE/DX =    0.               !
 ! R5    R(6,1)                  1.0951         -DE/DX =    0.               !
 ! A1    A(1,2,3)              103.8966         -DE/DX =   -0.0002           !
 ! A2    A(2,1,4)              107.622          -DE/DX =    0.               !
 ! A3    A(2,1,5)              112.3583         -DE/DX =    0.0001           !
 ! A4    A(4,1,5)              108.1126         -DE/DX =    0.               !
 ! A5    A(2,1,6)              112.3583         -DE/DX =    0.0001           !
 ! A6    A(4,1,6)              108.1126         -DE/DX =    0.               !
 ! A7    A(5,1,6)              108.1158         -DE/DX =   -0.0001           !
 ! D1    D(3,2,1,4)            180.             -DE/DX =    0.               !
 ! D2    D(3,2,1,5)             61.095          -DE/DX =    0.               !
 ! D3    D(3,2,1,6)            -61.095          -DE/DX =    0.               !
 -----------------------------------------------------------------------------
 GradGradGradGradGradGradGradGradGradGradGradGradGradGradGradGradGradGrad

 **********************************************************************

            Population analysis using the SCF density.

 **********************************************************************

 Orbital Symmetries:
       Occupied  (A') (A') (A') (A') (A') (A") (A') (A') (A")
       Virtual   (A') (A') (A") (A') (A')
  The electronic state is 1-A'.
 Alpha  occ. eigenvalues --  -20.26327 -11.08583  -1.27848  -0.87696  -0.61094
 Alpha  occ. eigenvalues --   -0.57131  -0.51714  -0.41864  -0.35941
 Alpha virt. eigenvalues --    0.57281   0.65073   0.69695   0.72314   0.73461
          Condensed to atoms (all electrons):
              1          2          3          4          5          6
  1  C    4.717978   0.263482  -0.041816   0.379393   0.376205   0.376205
  2  O    0.263482   7.811129   0.252502  -0.017861  -0.014537  -0.014537
  3  H   -0.041816   0.252502   0.618625   0.003650  -0.003467  -0.003467
  4  H    0.379393  -0.017861   0.003650   0.610150  -0.022500  -0.022500
  5  H    0.376205  -0.014537  -0.003467  -0.022500   0.636440  -0.026133
  6  H    0.376205  -0.014537  -0.003467  -0.022500  -0.026133   0.636440
 Total atomic charges:
              1
  1  C   -0.071447
  2  O   -0.280178
  3  H    0.173972
  4  H    0.069667
  5  H    0.053993
  6  H    0.053993
 Sum of Mulliken charges=   0.00000
 Atomic charges with hydrogens summed into heavy atoms:
              1
  1  C    0.106206
  2  O   -0.106206
  3  H    0.000000
  4  H    0.000000
  5  H    0.000000
  6  H    0.000000
 Sum of Mulliken charges=   0.00000
 Electronic spatial extent (au):  <R**2>=    82.8811
 Charge=     0.0000 electrons
 Dipole moment (Debye):
    X=    -1.2361    Y=     0.8657    Z=     0.0000  Tot=     1.5091
 Quadrupole moment (Debye-Ang):
   XX=   -11.0340   YY=   -12.5275   ZZ=   -12.3761
   XY=     1.4305   XZ=     0.0000   YZ=     0.0000
 Octapole moment (Debye-Ang**2):
  XXX=    -0.4396  YYY=    -4.6093  ZZZ=     0.0000  XYY=    -1.3267
  XXY=    -2.1333  XXZ=     0.0000  XZZ=    -0.4331  YZZ=    -1.0448
  YYZ=     0.0000  XYZ=     0.0000
 Hexadecapole moment (Debye-Ang**3):
 XXXX=   -17.1985 YYYY=   -56.5572 ZZZZ=   -15.4389 XXXY=    -0.4365
 XXXZ=     0.0000 YYYX=    -0.7233 YYYZ=     0.0000 ZZZX=     0.0000
 ZZZY=     0.0000 XXYY=   -11.2892 XXZZ=    -5.7157 YYZZ=   -11.8290
 XXYZ=     0.0000 YYXZ=     0.0000 ZZXY=    -1.1443
 N-N= 3.997562620947E+01 E-N=-3.476960116078E+02  KE= 1.126103331245E+02
 Symmetry A'   KE= 1.056346171649E+02
 Symmetry A"   KE= 6.975715959586E+00
  Exact polarizability:   8.953   1.912   9.266   0.000   0.000   5.743
 Approx polarizability:   7.518   0.703   7.012   0.000   0.000   4.532

 Test job not archived.
 1\1\GINC-OSCA\Freq\RHF\STO-3G\C1H4O1\JKL\17-Jun-1997\0\\# HF/STO-3G FR
 EQ GEOM=CHECKPOINT GUES=CHECK TEST\\Methanol, Frequences from the chec
 kpoint\\0,1\C,0.0500646859,0.6650468789,0.\O,0.0500646859,-0.767876248
 1,0.\H,-0.9121007525,-1.0059266674,0.\H,1.0901319776,0.9954145912,0.\H
 ,-0.4394684139,1.081620394,0.8866049385\H,-0.4394684139,1.081620394,-0
 .8866049385\\Version=CrayXMP-Unicos-G94RevC.3\State=1-A'\HF=-113.54919
 31\RMSD=5.402e-10\RMSF=9.956e-05\Dipole=-0.486308,0.3405916,0.\DipoleD
 eriv=0.1339631,0.0729865,0.,0.0711394,0.3148996,0.,0.,0.,0.2735479,0.0
 348731,-0.0478899,0.,0.0061882,-0.3476872,0.,0.,0.,-0.4931034,-0.16047
 1,-0.0574618,0.,-0.0272623,0.143976,0.,0.,0.,0.2860585,-0.0167389,-0.0
 128914,0.,-0.0097033,0.0039152,0.,0.,0.,0.040818,0.0041868,0.0226283,0
 .0434795,-0.020181,-0.0575518,0.0096591,0.0334798,-0.0245335,-0.053660
 5,0.0041868,0.0226283,-0.0434795,-0.020181,-0.0575518,-0.0096591,-0.03
 34798,0.0245335,-0.0536605\Polar=8.9526963,1.9115475,9.2655683,0.,0.,5
 .7426506\PolarDeriv=-2.0685667,-1.4757861,-0.2361702,0.,0.,1.6143864,-
 0.4479154,0.6950462,3.2492202,0.,0.,-1.1403555,0.,0.,0.,1.2610405,-1.7
 357246,0.,4.6783916,0.1856523,2.1603327,0.,0.,-0.3467085,0.0031848,1.3
 016267,-5.9524026,0.,0.,0.4572146,0.,0.,0.,1.1080783,-1.4114651,0.,-5.
 2256178,-2.6242331,-1.6534189,0.,0.,-0.0248618,-0.2555866,-2.164675,-2
 .4635431,0.,0.,-0.1066803,0.,0.,0.,-1.8045736,-1.155308,0.,5.3283024,1
 .337975,0.3739433,0.,0.,-0.2049652,0.4787198,2.2673775,1.1141798,0.,0.
 ,0.2107051,0.,0.,0.,1.9075662,1.0952941,0.,-1.3562547,1.288196,-0.3223
 434,1.8225665,-0.1865559,-0.5189254,0.1107987,-1.0496877,2.0262729,0.0
 092705,2.1354767,0.289558,0.094775,-0.0746152,0.4225864,-1.2360557,1.6
 036018,4.0535443,-1.3562547,1.288196,-0.3223434,-1.8225665,0.1865559,-
 0.5189254,0.1107987,-1.0496877,2.0262729,-0.0092705,-2.1354767,0.28955
 8,-0.094775,0.0746152,-0.4225864,-1.2360557,1.6036018,-4.0535443\Hyper
 Polar=-3.2221325,-0.9575539,-2.6992708,8.4929037,0.,0.,0.,-2.7855691,4
 .3283237,0.\PG=CS [SG(C1H2O1),X(H2)]\NImag=0\\0.87638914,0.00423609,0.
 77983190,0.,0.,0.80626195,-0.13220015,-0.04846237,0.,0.72327466,0.0560
 7776,-0.41051203,0.,0.11937469,0.59100041,0.,0.,-0.07030113,0.,0.,0.05
 355530,-0.00036218,0.03049182,0.,-0.60898831,-0.17132467,0.,0.60399779
 ,-0.07640957,-0.02685090,0.,-0.06453787,-0.09637104,0.,0.13836891,0.12
 672499,0.,0.,-0.00331999,0.,0.,-0.00390918,0.,0.,0.00445639,-0.4281888
 6,-0.10120767,0.,0.00755799,-0.00442050,0.,0.00203278,0.00262032,0.,0.
 43922191,-0.09714343,-0.10486441,0.,-0.05053769,-0.01309712,0.,-0.0001
 0943,-0.01157204,0.,0.11458860,0.11537896,0.,0.,-0.08365627,0.,0.,0.00
 205020,0.,0.,0.00141545,0.,0.,0.06908982,-0.15781897,0.05747106,0.1318
 1705,0.00517790,0.00014635,-0.00180352,0.00165996,-0.00002090,-0.00194
 487,-0.01031191,0.01660097,0.03673671,0.14876115,0.05661957,-0.1188022
 8,-0.10813520,0.02208162,-0.03551011,-0.03489941,0.00128668,0.00403449
 ,-0.00041896,-0.00579038,0.00707730,0.01251266,-0.06568126,0.13330336,
 0.13140773,-0.10165864,-0.32449228,-0.00162353,-0.00284423,0.00930241,
 -0.00086800,0.00041361,0.00067866,-0.00694900,0.00132443,0.00555040,-0
 .14338629,0.11685287,0.32971885,-0.15781897,0.05747106,-0.13181705,0.0
 0517790,0.00014635,0.00180352,0.00165996,-0.00002090,0.00194487,-0.010
 31191,0.01660097,-0.03673671,0.01253187,-0.00851623,0.02141908,0.14876
 115,0.05661957,-0.11880228,0.10813520,0.02208162,-0.03551011,0.0348994
 1,0.00128668,0.00403449,0.00041896,-0.00579038,0.00707730,-0.01251266,
 -0.00851623,0.00989724,-0.01408805,-0.06568126,0.13330336,-0.13140773,
 0.10165864,-0.32449228,0.00162353,0.00284423,0.00930241,0.00086800,-0.
 00041361,0.00067866,0.00694900,-0.00132443,0.00555040,-0.02141908,0.01
 408805,-0.02075804,0.14338629,-0.11685287,0.32971885\\0.00027656,0.000
 08132,0.,-0.00003028,0.00019481,0.,-0.00005937,-0.00013039,0.,-0.00015
 108,-0.00007782,0.,-0.00001791,-0.00003396,0.00004523,-0.00001791,-0.0
 0003396,-0.00004523\\\@

 EVERYTHING'S GOT A MORAL, IF ONLY YOU CAN FIND IT.

                                    -- LEWIS CARROL, ALICE IN WONDERLAND
 Job cpu time:  0 days  0 hours  0 minutes 22.4 seconds.
 File lengths (MBytes):  RWF=    6 Int=    0 D2E=    0 Chk=    2 Scr=    1
 Normal termination of Gaussian 94
