 Gaussian 03, Revision B.04,

 --------------------------------------------------------------------
 # UPBEPBE/aug-cc-pVDZ Opt=(calcall,noraman,maxcycle=100) symm=follow
 --------------------------------------------------------------------

 24hexadiyne init geom from 24hexadiyne_4.OUT.154 to break linearity 1s
 t freq
 ----------------------------------------------------------------------
 Symbolic Z-matrix:
 Charge =  0 Multiplicity = 1

 SCF Done:  E(UPBE-PBE) =  -231.844527300     A.U. after   16 cycles
 SCF Done:  E(UPBE-PBE) =  -231.845793158     A.U. after   25 cycles
 SCF Done:  E(UPBE-PBE) =  -231.845882926     A.U. after   12 cycles
 SCF Done:  E(UPBE-PBE) =  -231.845890054     A.U. after   17 cycles
 SCF Done:  E(UPBE-PBE) =  -231.845881837     A.U. after   17 cycles
 SCF Done:  E(UPBE-PBE) =  -231.845890253     A.U. after   20 cycles
 SCF Done:  E(UPBE-PBE) =  -231.845891549     A.U. after   14 cycles
 SCF Done:  E(UPBE-PBE) =  -231.845886483     A.U. after   16 cycles
 SCF Done:  E(UPBE-PBE) =  -231.845891553     A.U. after   16 cycles
 SCF Done:  E(UPBE-PBE) =  -231.845891605     A.U. after   15 cycles
 Optimization completed on the basis of negligible forces.
    -- Stationary point found.
 Normal termination of Gaussian 03 at Thu Jul 12 18:22:56 2007.

 ----------------------------------------------------------------------
 # UPBEPBE/aug-cc-pVDZ Opt=(rcfc, maxcycle=100) guess=read geom=allchec
 k scf=qc
 ----------------------------------------------------------------------

 t freq
 ----------------------------------------------------------------------
 Redundant internal coordinates taken from checkpoint file:
 /home/rkanters/C6H6/hexadiyne/24Hexadiyne_5.chk
 Charge =  0 Multiplicity = 1

 SCF Done:  E(UPBE-PBE) =  -231.845891791     a.u. after    2 cycles
 Optimization completed on the basis of negligible forces.
    -- Stationary point found.
 Normal termination of Gaussian 03 at Thu Jul 12 18:29:56 2007.
 Gaussian 03:  x86-Linux-G03RevB.04 2-Jun-2003

 ----------------------------------------------------------
 # UPBEPBE/aug-cc-pVDZ Freq guess=read geom=allcheck scf=qc
 ----------------------------------------------------------

 t freq
 ----------------------------------------------------------------------
 Redundant internal coordinates taken from checkpoint file:
 /home/rkanters/C6H6/hexadiyne/24Hexadiyne_5.chk
 Charge =  0 Multiplicity = 1

                         Standard orientation:
 ---------------------------------------------------------------------
 Center     Atomic     Atomic              Coordinates (Angstroms)
 Number     Number      Type              X           Y           Z
 ---------------------------------------------------------------------
    1          6             0       -0.000504    3.370583    0.000458
    2          6             0        0.018823    1.915594   -0.000038
    3          6             0       -0.018823    0.682857   -0.000720
    4          6             0        0.018823   -0.682857   -0.000720
    5          6             0       -0.018823   -1.915594   -0.000038
    6          6             0        0.000504   -3.370583    0.000458
    7          1             0        0.477575    3.776729    0.913481
    8          1             0       -1.038761    3.755209   -0.037558
    9          1             0        0.543521    3.778355   -0.874129
   10          1             0       -0.543521   -3.778355   -0.874129
   11          1             0       -0.477575   -3.776729    0.913481
   12          1             0        1.038761   -3.755209   -0.037558
 ---------------------------------------------------------------------

 SCF Done:  E(UPBE-PBE) =  -231.845891787     a.u. after    1 cycles

 The electronic state is 1-A.
 Alpha  occ. eigenvalues --   -9.92552  -9.92551  -9.91087  -9.91083  -9.90816
 Alpha  occ. eigenvalues --   -9.90779  -0.72674  -0.70897  -0.66967  -0.62030
 Alpha  occ. eigenvalues --   -0.52854  -0.42285  -0.41130  -0.38905  -0.38890
 Alpha  occ. eigenvalues --   -0.38690  -0.38688  -0.28956  -0.28949  -0.20437
 Alpha  occ. eigenvalues --   -0.20434
 Alpha virt. eigenvalues --   -0.04345  -0.04286  -0.01955  -0.01453   0.02161
 Alpha virt. eigenvalues --    0.02164   0.02168   0.02451   0.02462   0.04462
 Alpha virt. eigenvalues --    0.07298   0.08030   0.08048   0.08166   0.08286

  Beta  occ. eigenvalues --   -9.92552  -9.92551  -9.91087  -9.91083  -9.90816
  Beta  occ. eigenvalues --   -9.90779  -0.72674  -0.70897  -0.66967  -0.62030
  Beta  occ. eigenvalues --   -0.52854  -0.42285  -0.41130  -0.38905  -0.38890
  Beta  occ. eigenvalues --   -0.38690  -0.38688  -0.28956  -0.28949  -0.20437
  Beta  occ. eigenvalues --   -0.20434
  Beta virt. eigenvalues --   -0.04345  -0.04286  -0.01955  -0.01453   0.02161
  Beta virt. eigenvalues --    0.02164   0.02168   0.02451   0.02462   0.04462
  Beta virt. eigenvalues --    0.07298   0.08030   0.08048   0.08166   0.08286

 Mulliken atomic charges:
              1
     1  C    0.601382
     2  C   -2.181486
     3  C    1.696127
     4  C    1.696127
     5  C   -2.181486
     6  C    0.601382
     7  H   -0.037925
     8  H   -0.039834
     9  H   -0.038263
    10  H   -0.038263
    11  H   -0.037925
    12  H   -0.039834
 Sum of Mulliken charges=   0.00000

 Dipole moment (field-independent basis, Debye):
    X=     0.0000    Y=     0.0000    Z=     0.0015  Tot=     0.0015
 Quadrupole moment (field-independent basis, Debye-Ang):
   XX=   -36.9789   YY=   -19.6287   ZZ=   -36.9692
   XY=    -0.0238   XZ=     0.0000   YZ=     0.0000

  Exact polarizability:  51.448   0.857 167.647   0.000   0.000  51.463
 Approx polarizability:  81.953   5.998 378.741   0.000   0.000  81.904

                     1                      2                      3
                     A                      A                      B
 Frequencies --    14.2669                87.7415                95.8191
 Red. masses --     1.0089                 3.7478                 3.4635
 Frc consts  --     0.0001                 0.0170                 0.0187
 IR Inten    --     0.0008                 7.1362                 8.1909

                     4                      5                      6
                     B                      B                      A
 Frequencies --   157.6978               230.9606               232.8355
 Red. masses --     8.1573                 4.0100                 3.6077
 Frc consts  --     0.1195                 0.1260                 0.1152
 IR Inten    --     0.0003                 0.0002                 0.0003

                     7                      8                      9
                     A                      B                      A
 Frequencies --   273.6635               342.8505               553.3275
 Red. masses --     4.7605                 5.1612                 4.3491
 Frc consts  --     0.2101                 0.3574                 0.7845
 IR Inten    --     4.9498                 4.0790                 0.0000

                    10                     11                     12
                     A                      B                      B
 Frequencies --   690.5252               953.7801               979.2422
 Red. masses --     8.0643                 4.3017                 1.3944
 Frc consts  --     2.2656                 2.3056                 0.7878
 IR Inten    --     0.0000                 7.9965                 3.2208

                    13                     14                     15
                     A                      B                      A
 Frequencies --   982.4585               989.6228               994.3467
 Red. masses --     1.3821                 1.3798                 1.4326
 Frc consts  --     0.7860                 0.7962                 0.8346
 IR Inten    --     3.2599                 0.0159                 0.0063

                    16                     17                     18
                     A                      B                      A
 Frequencies --  1287.8944              1334.7497              1353.7202
 Red. masses --     2.3018                 1.2530                 1.9397
 Frc consts  --     2.2495                 1.3153                 2.0944
 IR Inten    --     0.0000                14.4775                 0.0008

                    19                     20                     21
                     A                      B                      A
 Frequencies --  1393.2315              1393.6381              1394.9255
 Red. masses --     1.0367                 1.0371                 1.0374
 Frc consts  --     1.1856                 1.1868                 1.1894
 IR Inten    --    16.3134                 0.0012                 0.0000

                    22                     23                     24
                     B                      B                      A
 Frequencies --  1394.9544              2195.1630              2298.4615
 Red. masses --     1.0374                11.8392                11.8520
 Frc consts  --     1.1893                33.6130                36.8906
 IR Inten    --    16.1483                 4.4135                 0.0000

                    25                     26                     27
                     B                      A                      B
 Frequencies --  2952.9435              2953.5200              3025.9267
 Red. masses --     1.0345                 1.0348                 1.1003
 Frc consts  --     5.3148                 5.3186                 5.9357
 IR Inten    --    82.0600                 0.0000                 0.6378

                    28                     29                     30
                     A                      A                      B
 Frequencies --  3026.0765              3026.2333              3026.3997
 Red. masses --     1.1005                 1.1006                 1.1008
 Frc consts  --     5.9372                 5.9387                 5.9401
 IR Inten    --     7.9406                 3.7221                10.6996

 - Thermochemistry -
 -------------------
 Temperature   298.150 Kelvin.  Pressure   1.00000 Atm.
 Atom  1 has atomic number  6 and mass  12.00000

 Molecular mass:    78.04695 amu.
 Principal axes and moments of inertia in atomic units:
                           1         2         3
     EIGENVALUES --    23.110871646.597111646.67475
           X            0.00094   1.00000   0.00000
           Y            1.00000  -0.00094   0.00000
           Z            0.00000   0.00000   1.00000
 This molecule is an asymmetric top.
 Rotational symmetry number  2.
 Rotational temperatures (Kelvin)      3.74775     0.05260     0.05260
 Rotational constants (GHZ):          78.09059     1.09604     1.09599
 Zero-point vibrational energy     237081.8 (Joules/Mol)
                                   56.66390 (Kcal/Mol)
 Warning -- explicit consideration of   9 degrees of freedom as
           vibrations may cause significant error
 Vibrational temperatures:     20.53   126.24   137.86   226.89   332.30
          (Kelvin)            335.00   393.74   493.28   796.11   993.51
                             1372.28  1408.91  1413.54  1423.84  1430.64
                             1852.99  1920.40  1947.70  2004.55  2005.13
                             2006.98  2007.03  3158.35  3306.97  4248.62
                             4249.45  4353.63  4353.84  4354.07  4354.31

 Zero-point correction=                           0.090300 (Hartree/Particle)
 Thermal correction to Energy=                    0.098588
 Thermal correction to Enthalpy=                  0.099533
 Thermal correction to Gibbs Free Energy=         0.057538
 Sum of electronic and zero-point Energies=           -231.755592
 Sum of electronic and thermal Energies=              -231.747303
 Sum of electronic and thermal Enthalpies=            -231.746359
 Sum of electronic and thermal Free Energies=         -231.788354

                     E (Thermal)             CV                S
                      KCal/Mol        Cal/Mol-Kelvin    Cal/Mol-Kelvin
 Total                   61.865             25.480             88.385
 Electronic               0.000              0.000              0.000
 Translational            0.889              2.981             38.979
 Rotational               0.889              2.981             24.264
 Vibrational             60.088             19.519             25.142
 Vibration  1             0.593              1.986              7.305
 Vibration  2             0.601              1.958              3.710
 Vibration  3             0.603              1.952              3.538
 Vibration  4             0.621              1.894              2.577
 Vibration  5             0.653              1.794              1.871
 Vibration  6             0.654              1.791              1.857
 Vibration  7             0.676              1.722              1.573
 Vibration  8             0.722              1.590              1.199
 Vibration  9             0.909              1.132              0.537

 Optimization completed on the basis of negligible forces.
    -- Stationary point found.
 Normal termination of Gaussian 03 at Thu Jul 12 19:23:47 2007.
