 Gaussian 03, Revision B.02,
 Gaussian 03:  DEC-AXP-OSF/1-G03RevB.02 16-Apr-2003

 ------------------------------------------------------
 #n hf 6-31G* scf=direct opt freq test maxdisk=13107200
 ------------------------------------------------------

 -----
 water
 -----
 Symbolic Z-matrix:
 Charge =  0 Multiplicity = 1

 SCF Done:  E(RHF) =  -76.0054880454     A.U. after   10 cycles
 SCF Done:  E(RHF) =  -76.0106565789     A.U. after   11 cycles
 SCF Done:  E(RHF) =  -76.0107436058     A.U. after    8 cycles
 SCF Done:  E(RHF) =  -76.0107464982     A.U. after    8 cycles
 Optimization completed.
    -- Stationary point found.
 Normal termination of Gaussian 03 at Tue May 27 18:02:33 2003.

 --------------------------------------------------------------------
 #N Geom=AllCheck Guess=Read SCRF=Check Test GenChk RHF/6-31G(d) Freq
 --------------------------------------------------------------------

 water
 -----
 Redundant internal coordinates taken from checkpoint file:
 h2o.chk
 Charge =  0 Multiplicity = 1

                         Standard orientation:
 ---------------------------------------------------------------------
 Center     Atomic     Atomic              Coordinates (Angstroms)
 Number     Number      Type              X           Y           Z
 ---------------------------------------------------------------------
    1          1             0        0.000000    0.754105   -0.458804
    2          8             0        0.000000    0.000000    0.114701
    3          1             0        0.000000   -0.754105   -0.458804
 ---------------------------------------------------------------------

 SCF Done:  E(RHF) =  -76.0107464982     A.U. after    1 cycles

 The electronic state is 1-A1.
 Alpha  occ. eigenvalues --  -20.55790  -1.34609  -0.71421  -0.57079  -0.49821
 Alpha virt. eigenvalues --    0.21300   0.30684   1.03163   1.13338   1.16803
 Alpha virt. eigenvalues --    1.17839   1.38508   1.43121   2.02057   2.03060
 Alpha virt. eigenvalues --    2.06724   2.63551   2.96563   3.97765

 Mulliken atomic charges:
              1
     1  H    0.434371
     2  O   -0.868742
     3  H    0.434371
 Sum of Mulliken charges=   0.00000

 Dipole moment (field-independent basis, Debye):
    X=     0.0000    Y=     0.0000    Z=    -2.1991  Tot=     2.1991
 Quadrupole moment (field-independent basis, Debye-Ang):
   XX=    -7.2059   YY=    -4.1056   ZZ=    -6.0008
   XY=     0.0000   XZ=     0.0000   YZ=     0.0000

  Exact polarizability:   2.778   0.000   6.680   0.000   0.000   4.809
 Approx polarizability:   2.363   0.000   5.341   0.000   0.000   4.006

                     1                      2                      3
                    A1                     A1                     B2
 Frequencies --  1826.8476              4069.2290              4187.4005
 Red. masses --     1.0823                 1.0455                 1.0828
 Frc consts  --     2.1281                10.2002                11.1868
 IR Inten    --   107.2412                18.1938                58.0540
 Raman Activ --     5.7277                75.5731                39.1097

 - Thermochemistry -
 -------------------
 Temperature   298.150 Kelvin.  Pressure   1.00000 Atm.
 Atom  1 has atomic number  1 and mass   1.00783

 Molecular mass:    18.01056 amu.
 Principal axes and moments of inertia in atomic units:
                           1         2         3
     EIGENVALUES --     2.10253   4.09333   6.19586
           X            0.00000   0.00000   1.00000
           Y            1.00000   0.00000   0.00000
           Z            0.00000   1.00000   0.00000
 This molecule is an asymmetric top.
 Rotational symmetry number  2.
 Rotational temperatures (Kelvin)     41.19508    21.15976    13.97931
 Rotational constants (GHZ):         858.36718   440.89830   291.28199
 Zero-point vibrational energy      60312.6 (Joules/Mol)
                                   14.41505 (Kcal/Mol)
 Vibrational temperatures:   2628.42  5854.71  6024.73
          (Kelvin)

 Zero-point correction=                           0.022972 (Hartree/Particle)
 Thermal correction to Energy=                    0.025806
 Thermal correction to Enthalpy=                  0.026750
 Thermal correction to Gibbs Free Energy=         0.005375
 Sum of electronic and zero-point Energies=            -75.987775
 Sum of electronic and thermal Energies=               -75.984941
 Sum of electronic and thermal Enthalpies=             -75.983997
 Sum of electronic and thermal Free Energies=          -76.005372

                     E (Thermal)             CV                S
                      KCal/Mol        Cal/Mol-Kelvin    Cal/Mol-Kelvin
 Total                   16.193              5.985             44.988
 Electronic               0.000              0.000              0.000
 Translational            0.889              2.981             34.608
 Rotational               0.889              2.981             10.376
 Vibrational             14.416              0.023              0.003

 Optimization completed.
    -- Stationary point found.
 Normal termination of Gaussian 03 at Tue May 27 18:02:42 2003.
