 Gaussian 98, Revision A.11.3,
 Gaussian 98:  SGI64-G98RevA.11.3 5-Feb-2002

 ----------------
 #N HF/STO-3G OPT
 ----------------

 ---
 H2O
 ---
 Symbolic Z-matrix:
 Charge =  0 Multiplicity = 1

                         Standard orientation:
 ---------------------------------------------------------------------
 Center     Atomic     Atomic              Coordinates (Angstroms)
 Number     Number      Type              X           Y           Z
 ---------------------------------------------------------------------
    1          8             0        0.000000    0.000000    0.127164
    2          1             0        0.000000    0.758137   -0.508657
    3          1             0        0.000000   -0.758137   -0.508657
 ---------------------------------------------------------------------

 SCF Done:  E(RHF) =  -74.9659012096     A.U. after    7 cycles

  The electronic state is 1-A1.
 Alpha  occ. eigenvalues --  -20.25158  -1.25752  -0.59383  -0.45972  -0.39261
 Alpha virt. eigenvalues --    0.58174   0.69262

 Optimization completed.
    -- Stationary point found.
 Normal termination of Gaussian 98.
