 Gaussian 03, Revision B.05,
 Gaussian 03:  x86-Linux-G03RevB.05  8-Nov-2003

 ---------------------------------------------------------------
 # b3lyp/6-31g* pop=(full,nboread) gfprint guess=read geom=check
 ---------------------------------------------------------------

 ------------------
 No Z-matrix found on checkpoint file.
 Cartesian coordinates read from the checkpoint file:
 no2.chk
 Charge =  0 Multiplicity = 2

                         Standard orientation:
 ---------------------------------------------------------------------
 Center     Atomic     Atomic              Coordinates (Angstroms)
 Number     Number      Type              X           Y           Z
 ---------------------------------------------------------------------
    1          8             0        0.000000    1.106709   -0.143637
    2          7             0        0.000000    0.000000    0.328314
    3          8             0        0.000000   -1.106709   -0.143637
 ---------------------------------------------------------------------

 SCF Done:  E(UB+HF-LYP) =  -205.072192847     A.U. after    1 cycles

 The electronic state is 2-A1.
 Alpha  occ. eigenvalues --  -19.26564 -19.26563 -14.58716  -1.28184  -1.13634
 Alpha  occ. eigenvalues --   -0.67825  -0.57494  -0.57202  -0.56498  -0.38150
 Alpha  occ. eigenvalues --   -0.37743  -0.28776
 Alpha virt. eigenvalues --   -0.09029   0.21037   0.36949   0.58382   0.59071
 Alpha virt. eigenvalues --    0.59287   0.61180   0.77978   0.82018   0.87943
 Alpha virt. eigenvalues --    0.88908   0.93806   0.95245   1.27312   1.37164

  Beta  occ. eigenvalues --  -19.25673 -19.25671 -14.57653  -1.26315  -1.11482
  Beta  occ. eigenvalues --   -0.64488  -0.55405  -0.54824  -0.52978  -0.36983
  Beta  occ. eigenvalues --   -0.34101
  Beta virt. eigenvalues --   -0.14316  -0.07381   0.22363   0.39522   0.59691
  Beta virt. eigenvalues --    0.59884   0.61970   0.62073   0.78562   0.83806
  Beta virt. eigenvalues --    0.88374   0.91475   0.94467   0.96908   1.28884

 Mulliken atomic charges:
              1
     1  O   -0.240262
     2  N    0.480525
     3  O   -0.240262
 Sum of Mulliken charges=   0.00000

 Dipole moment (field-independent basis, Debye):
    X=     0.0000    Y=     0.0000    Z=     0.3218  Tot=     0.3218
 Quadrupole moment (field-independent basis, Debye-Ang):
   XX=   -14.5503   YY=   -17.5906   ZZ=   -15.2319
   XY=     0.0000   XZ=     0.0000   YZ=     0.0000

 Summary of Natural Population Analysis:

                                     Natural Population
             Natural    ---------------------------------------------
  Atom No    Charge        Core      Valence    Rydberg      Total
 --------------------------------------------------------------------
    O  1    0.01465      0.99992     2.97632    0.00911     3.98535
    N  2    0.47070      0.99983     2.00540    0.02406     3.02930
    O  3    0.01465      0.99992     2.97632    0.00911     3.98535
 ====================================================================
 * Total *  0.50000      2.99966     7.95804    0.04229    11.00000

 Normal termination of Gaussian 03 at Sat Apr 11 15:27:45 2009.
