 Gaussian 03, Revision B.05,
 Gaussian 03:  Sun64-SVR4-Unix-G03RevB.05  8-Nov-2003

 -----------------------------------------------------------------
 # opt=z-matrix B3PW91 6-311++G(df,pd) symmetry(pg=cs) IOp(2/16=3)
 -----------------------------------------------------------------

 Acetylene HBr B3PW91/6-311++G(df,pd) HBr scan in Cs 'pulling' the H to
  X keeping
 ----------------------------------------------------------------------
 Symbolic Z-matrix:
 Charge =  0 Multiplicity = 1

 SCF Done:  E(RB+HF-PW91) =  -2652.06066339     A.U. after   10 cycles
 SCF Done:  E(RB+HF-PW91) =  -2652.06122427     A.U. after    8 cycles
 SCF Done:  E(RB+HF-PW91) =  -2652.06123447     A.U. after    7 cycles
 SCF Done:  E(RB+HF-PW91) =  -2652.06123596     A.U. after    5 cycles
 SCF Done:  E(RB+HF-PW91) =  -2652.06123254     A.U. after    7 cycles
 SCF Done:  E(RB+HF-PW91) =  -2652.06123626     A.U. after    7 cycles
 SCF Done:  E(RB+HF-PW91) =  -2652.06123797     A.U. after    5 cycles
 SCF Done:  E(RB+HF-PW91) =  -2652.06123729     A.U. after    7 cycles
 SCF Done:  E(RB+HF-PW91) =  -2652.06123864     A.U. after    7 cycles
 SCF Done:  E(RB+HF-PW91) =  -2652.06125341     A.U. after    7 cycles
 Optimization completed.
    -- Stationary point found.
 Optimization completed.
 SCF Done:  E(RB+HF-PW91) =  -2652.05011377     A.U. after    8 cycles
 SCF Done:  E(RB+HF-PW91) =  -2652.04356065     A.U. after   10 cycles
 SCF Done:  E(RB+HF-PW91) =  -2652.04490158     A.U. after   10 cycles
 SCF Done:  E(RB+HF-PW91) =  -2652.04498833     A.U. after    8 cycles
 SCF Done:  E(RB+HF-PW91) =  -2652.03740760     A.U. after   10 cycles
 SCF Done:  E(RB+HF-PW91) =  -2652.03826348     A.U. after   10 cycles
 SCF Done:  E(RB+HF-PW91) =  -2652.03833067     A.U. after    8 cycles
    -- Stationary point found.
 SCF Done:  E(RB+HF-PW91) =  -2652.02956656     A.U. after   10 cycles
 SCF Done:  E(RB+HF-PW91) =  -2652.02999746     A.U. after   10 cycles
 SCF Done:  E(RB+HF-PW91) =  -2652.03002099     A.U. after    8 cycles
 Optimization completed.
    -- Stationary point found.

                         Standard orientation:
 ---------------------------------------------------------------------
 Center     Atomic     Atomic              Coordinates (Angstroms)
 Number     Number      Type              X           Y           Z
 ---------------------------------------------------------------------
    1          6             0        0.000000   -2.124708    0.602191
    2          6             0        0.000000   -2.124708   -0.602191
    3          1             0        0.000000   -2.087185    1.668582
    4          1             0        0.000000   -2.087185   -1.668582
    5          1             0        0.000000   -0.749685    0.000000
    6         35             0        0.000000    0.869159    0.000000
 ---------------------------------------------------------------------

 The electronic state is 1-A'.
 Alpha  occ. eigenvalues -- -482.74660 -62.42298 -56.23877 -56.23726 -56.23698
 Alpha  occ. eigenvalues --  -10.24750 -10.24515  -8.64413  -6.46851  -6.46365
 Alpha  occ. eigenvalues --   -6.46277  -2.57755  -2.57616  -2.57546  -2.57155
 Alpha  occ. eigenvalues --   -2.57152  -0.86502  -0.72737  -0.63574  -0.56636
 Alpha  occ. eigenvalues --   -0.47450  -0.37448  -0.29005  -0.26652  -0.26186
 Alpha virt. eigenvalues --   -0.04921  -0.03770  -0.00050   0.00458   0.02760
 Alpha virt. eigenvalues --    0.04818   0.05659   0.07401   0.07875   0.08465
 Alpha virt. eigenvalues --    0.08916   0.11305   0.11357   0.12412   0.12602

 Mulliken atomic charges:
              1
     1  C   -0.113323
     2  C   -0.113323
     3  H    0.322555
     4  H    0.322555
     5  H   -0.110931
     6  Br  -0.307533
 Sum of Mulliken charges=   0.00000

 Dipole moment (field-independent basis, Debye):
    X=     0.0000    Y=    -4.7754    Z=     0.0000  Tot=     4.7754
 Quadrupole moment (field-independent basis, Debye-Ang):
   XX=   -33.7515   YY=   -28.1884   ZZ=   -25.8622
   XY=     0.0000   XZ=     0.0000   YZ=     0.0000

 Normal termination of Gaussian 03 at Sun Jul 25 21:33:44 2004.
