 Gaussian 03, Revision B.05,
 Gaussian 03:  Sun64-SVR4-Unix-G03RevB.05  8-Nov-2003

 ---------------------------------------------------------
 # opt=z-matrix B3PW91 6-311++G(df,pd) freq temperature=14
 ---------------------------------------------------------

 -----------------------------------------------
 Acetylene HBr B3PW91/6-311++G(df,pd) forcing Cs
 -----------------------------------------------
 Symbolic Z-matrix:
 Charge =  0 Multiplicity = 1

 SCF Done:  E(RB+HF-PW91) =  -2652.06126778     A.U. after   10 cycles
 SCF Done:  E(RB+HF-PW91) =  -2652.06118419     A.U. after    8 cycles
 SCF Done:  E(RB+HF-PW91) =  -2652.06126778     A.U. after    8 cycles
 Optimization completed.
    -- Stationary point found.
 Normal termination of Gaussian 03 at Fri Aug 20 18:44:23 2004.

 ----------------------------------------------------------------------
 #N Geom=AllCheck Guess=Read SCRF=Check GenChk RB3PW91/6-311++G(df,pd)
 Freq
 ----------------------------------------------------------------------

 Acetylene HBr B3PW91/6-311++G(df,pd) forcing Cs
 -----------------------------------------------
 Z-Matrix taken from the checkpoint file:
 opt.chk
 Charge =  0 Multiplicity = 1

                         Standard orientation:
 ---------------------------------------------------------------------
 Center     Atomic     Atomic              Coordinates (Angstroms)
 Number     Number      Type              X           Y           Z
 ---------------------------------------------------------------------
    1          6             0        0.000000    0.600027   -2.781634
    2          6             0        0.000000   -0.600027   -2.781634
    3          1             0        0.000000    1.665091   -2.792489
    4          1             0        0.000000   -1.665091   -2.792489
    5          1             0        0.000000    0.000000   -0.308839
    6         35             0        0.000000    0.000000    1.122098
 ---------------------------------------------------------------------

 SCF Done:  E(RB+HF-PW91) =  -2652.06126778     A.U. after    1 cycles

 The electronic state is 1-A1.
 Alpha  occ. eigenvalues -- -482.80089 -62.47692 -56.29385 -56.29056 -56.29053
 Alpha  occ. eigenvalues --  -10.19311 -10.19069  -8.69813  -6.52595  -6.51546
 Alpha  occ. eigenvalues --   -6.51537  -2.63453  -2.63109  -2.63102  -2.62268
 Alpha  occ. eigenvalues --   -2.62268  -0.79046  -0.78264  -0.59238  -0.52149
 Alpha  occ. eigenvalues --   -0.44082  -0.32310  -0.32237  -0.30431  -0.30349
 Alpha virt. eigenvalues --   -0.00541  -0.00393   0.00059   0.01336   0.01455
 Alpha virt. eigenvalues --    0.04336   0.05671   0.07172   0.07509   0.07622
 Alpha virt. eigenvalues --    0.08522   0.09901   0.12615   0.12962   0.13475

 Mulliken atomic charges:
              1
     1  C   -0.237019
     2  C   -0.237019
     3  H    0.268474
     4  H    0.268474
     5  H    0.028123
     6  Br  -0.091033
 Sum of Mulliken charges=   0.00000

 Dipole moment (field-independent basis, Debye):
    X=     0.0000    Y=     0.0000    Z=    -1.7514  Tot=     1.7514
 Quadrupole moment (field-independent basis, Debye-Ang):
   XX=   -33.6169   YY=   -26.5698   ZZ=   -30.4481
   XY=     0.0000   XZ=     0.0000   YZ=     0.0000

  Exact polarizability:  28.784   0.000  43.433   0.000   0.000  44.200
 Approx polarizability:  35.781   0.000  71.982   0.000   0.000  55.399

                     1                      2                      3
                    A1                     B2                     B1
 Frequencies --    64.6809                64.9485               203.8241
 Red. masses --     8.0904                 2.2567                 1.0164
 Frc consts  --     0.0199                 0.0056                 0.0249
 IR Inten    --     1.4343                 1.4384                15.8823

                     4                      5                      6
                    B2                     A2                     B2
 Frequencies --   287.7961               659.5627               675.8325
 Red. masses --     1.0595                 1.5741                 1.5230
 Frc consts  --     0.0517                 0.4035                 0.4099
 IR Inten    --     8.1313                 0.0000                 0.3083

                     7                      8                      9
                    B1                     A1                     A1
 Frequencies --   772.3422               785.1796              2063.6923
 Red. masses --     1.0863                 1.0862                 3.7732
 Frc consts  --     0.3818                 0.3945                 9.4679
 IR Inten    --   107.5995               134.2951                 3.3363

                    10                     11                     12
                    A1                     B2                     A1
 Frequencies --  2521.0940              3410.1755              3512.0957
 Red. masses --     1.0211                 1.0848                 1.2333
 Frc consts  --     3.8238                 7.4328                 8.9632
 IR Inten    --   264.5877               109.0525                 0.0637

 - Thermochemistry -
 -------------------
 Temperature    14.000 Kelvin.  Pressure   1.00000 Atm.
 Atom  1 has atomic number  6 and mass  12.00000

 Molecular mass:   105.94181 amu.
 Principal axes and moments of inertia in atomic units:
                           1         2         3
     EIGENVALUES --    50.813531065.989501116.80303
           X            0.00000   0.00000   1.00000
           Y            0.00000   1.00000   0.00000
           Z            1.00000   0.00000   0.00000
 This molecule is an asymmetric top.
 Rotational symmetry number  2.
 Rotational temperatures (Kelvin)      1.70454     0.08125     0.07756
 Rotational constants (GHZ):          35.51694     1.69302     1.61599
 Zero-point vibrational energy      89846.9 (Joules/Mol)
                                   21.47392 (Kcal/Mol)
 Vibrational temperatures:     93.06    93.45   293.26   414.07   948.96
          (Kelvin)            972.37  1111.23  1129.70  2969.19  3627.29
                             4906.48  5053.12

 Zero-point correction=                           0.034221 (Hartree/Particle)
 Thermal correction to Energy=                    0.034355
 Thermal correction to Enthalpy=                  0.034399
 Thermal correction to Gibbs Free Energy=         0.033510
 Sum of electronic and zero-point Energies=          -2652.027047
 Sum of electronic and thermal Energies=             -2652.026913
 Sum of electronic and thermal Enthalpies=           -2652.026869
 Sum of electronic and thermal Free Energies=        -2652.027758

                     E (Thermal)             CV                S
                      KCal/Mol        Cal/Mol-Kelvin    Cal/Mol-Kelvin
 Total                   21.558              6.188             39.846
 Electronic               0.000              0.000              0.000
 Translational            0.042              2.981             24.695
 Rotational               0.042              2.981             15.112
 Vibrational             21.474              0.226              0.039

 Optimization completed.
    -- Stationary point found.
 Normal termination of Gaussian 03 at Fri Aug 20 19:04:49 2004.
