         Total SCF energy =    -74.653754522079
@ Step       Energy      Delta E   Gmax     Grms     Xrms     Xmax   Walltime
@ ---- ---------------- -------- -------- -------- -------- -------- --------
@    0     -74.65375452  0.0E+00  0.04782  0.04646  0.00000  0.00000      1.7
         Total SCF energy =    -74.666243322266
         Total SCF energy =    -74.666852984585
@    1     -74.66685298 -1.3E-02  0.01741  0.01666  0.09743  0.20192      3.6
         Total SCF energy =    -74.669587680829
         Total SCF energy =    -74.669738041156
@    2     -74.66973804 -2.9E-03  0.00106  0.00093  0.04579  0.09559      5.4
         Total SCF energy =    -74.669743063627
         Total SCF energy =    -74.669743223879
@    3     -74.66974322 -5.2E-06  0.00002  0.00002  0.00244  0.00474      7.2
         Total SCF energy =    -74.669743224959
         Total SCF energy =    -74.669743224959
@    4     -74.66974322 -1.1E-09  0.00000  0.00000  0.00002  0.00006      8.2
@    4     -74.66974322 -1.1E-09  0.00000  0.00000  0.00002  0.00006      8.2
         Total SCF energy =    -74.669743225280
 Zero-Point correction to Energy  =   13.350 kcal/mol  (  0.021275 au)
 Thermal correction to Energy     =   15.129 kcal/mol  (  0.024109 au)
 Thermal correction to Enthalpy   =   15.721 kcal/mol  (  0.025053 au)
 Total Entropy                    =   46.819 cal/mol-K
   - Translational                =   34.593 cal/mol-K (mol. weight =  18.0106)
   - Rotational                   =   12.220 cal/mol-K (symmetry #  =        1)
   - Vibrational                  =    0.007 cal/mol-K
   - Translational                  =    2.979 cal/mol-K
   - Rotational                     =    2.979 cal/mol-K
   - Vibrational                    =    0.047 cal/mol-K
 P.Frequency        0.00        0.00        0.00        0.00        0.00        0.00
 P.Frequency     1629.30     3792.30     3921.59
         Total SCF energy =    -75.624186554742
          Total MP2 energy           -75.775053099805
@ Step       Energy      Delta E   Gmax     Grms     Xrms     Xmax   Walltime
@ ---- ---------------- -------- -------- -------- -------- -------- --------
@    0     -75.77505310  0.0E+00  0.02471  0.02018  0.00000  0.00000     22.2
         Total SCF energy =    -75.627061232215
          Total MP2 energy           -75.776555626989
         Total SCF energy =    -75.627795303420
          Total MP2 energy           -75.776670586616
@    1     -75.77667059 -1.6E-03  0.00186  0.00147  0.02699  0.05118     39.1
         Total SCF energy =    -75.627672349850
          Total MP2 energy           -75.776677823228
         Total SCF energy =    -75.627686610505
          Total MP2 energy           -75.776677927992
@    2     -75.77667793 -7.3E-06  0.00003  0.00002  0.00174  0.00352     54.8
         Total SCF energy =    -75.627688120750
          Total MP2 energy           -75.776677936495
         Total SCF energy =    -75.627688120750
          Total MP2 energy           -75.776677936495
@    3     -75.77667794 -8.5E-09  0.00001  0.00000  0.00009  0.00016     68.2
@    3     -75.77667794 -8.5E-09  0.00001  0.00000  0.00009  0.00016     68.2

 Output coordinates in angstroms (scale by  1.889725989 to convert to a.u.)

  No.       Tag          Charge          X              Y              Z
 ---- ---------------- ---------- -------------- -------------- --------------
    1 O                    8.0000     0.05073808    -0.00000262     0.00000000
    2 H1                   1.0000    -0.52034463     0.82010045     0.00000000
    3 H2                   1.0000    -0.52034295    -0.82009783     0.00000000

 Zero-Point correction to Energy  =   12.141 kcal/mol  (  0.019347 au)
 Thermal correction to Energy     =   13.920 kcal/mol  (  0.022184 au)
 Thermal correction to Enthalpy   =   14.513 kcal/mol  (  0.023127 au)
 Total Entropy                    =   46.623 cal/mol-K
   - Translational                =   34.593 cal/mol-K (mol. weight =  18.0106)
   - Rotational                   =   12.018 cal/mol-K (symmetry #  =        1)
   - Vibrational                  =    0.013 cal/mol-K
   - Translational                  =    2.979 cal/mol-K
   - Rotational                     =    2.979 cal/mol-K
   - Vibrational                    =    0.079 cal/mol-K
 P.Frequency        0.00        0.00        0.00        0.00        0.00        0.00
 P.Frequency     1484.82     3460.16     3551.49

 Normal Eigenvalue ||           Projected Infra Red Intensities
  Mode   [cm**-1]  || [atomic units] [(debye/angs)**2] [(KM/mol)] [arbitrary]
 ------ ---------- || -------------- ----------------- ---------- -----------
    1        0.000 ||    0.196414           4.531       191.474      10.743
    2        0.000 ||    0.000084           0.002         0.081       0.005
    3        0.000 ||    0.266529           6.149       259.826      14.578
    4        0.000 ||    0.266530           6.149       259.827      14.578
    5        0.000 ||    0.000452           0.010         0.441       0.025
    6        0.000 ||    0.057967           1.337        56.509       3.171
    7     1484.824 ||    0.193367           4.461       188.504      10.576
    8     3460.160 ||    0.152676           3.522       148.837       8.351
    9     3551.489 ||    0.511432          11.799       498.569      27.973
 ----------------------------------------------------------------------------

 Total times  cpu:      216.4s     wall:      264.4s
