         Total SCF energy =    -74.653754522057
@ Step       Energy      Delta E   Gmax     Grms     Xrms     Xmax   Walltime
@ ---- ---------------- -------- -------- -------- -------- -------- --------
@    0     -74.65375452  0.0D+00  0.04782  0.04646  0.00000  0.00000      1.7
         Total SCF energy =    -74.666281981988
         Total SCF energy =    -74.667005986850
@    1     -74.66700599 -1.3D-02  0.01719  0.01627  0.09846  0.20379      5.4
         Total SCF energy =    -74.669724175671
         Total SCF energy =    -74.669724175671
@    2     -74.66972418 -2.7D-03  0.00267  0.00219  0.04290  0.09270      6.7
         Total SCF energy =    -74.669742712456
         Total SCF energy =    -74.669743133585
@    3     -74.66974313 -1.9D-05  0.00016  0.00010  0.00395  0.00825     11.7
         Total SCF energy =    -74.669743222728
         Total SCF energy =    -74.669743222728
@    4     -74.66974322 -8.9D-08  0.00004  0.00003  0.00026  0.00053     13.0
@    4     -74.66974322 -8.9D-08  0.00004  0.00003  0.00026  0.00053     13.0
         Total SCF energy =    -74.669743222734
 Zero-Point correction to Energy  =   13.350 kcal/mol  (  0.021275 au)
 Thermal correction to Energy     =   15.129 kcal/mol  (  0.024109 au)
 Thermal correction to Enthalpy   =   15.721 kcal/mol  (  0.025053 au)
 Total Entropy                    =   46.819 cal/mol-K
   - Translational                =   34.593 cal/mol-K (mol. weight =  18.0106)
   - Rotational                   =   12.220 cal/mol-K (symmetry #  =        1)
   - Vibrational                  =    0.007 cal/mol-K
   - Translational                  =    2.979 cal/mol-K
   - Rotational                     =    2.979 cal/mol-K
   - Vibrational                    =    0.047 cal/mol-K
 P.Frequency        0.00        0.00        0.00        0.00        0.00        0.00
 P.Frequency     1629.34     3792.24     3921.53
         Total SCF energy =    -75.624185583828
          Total MP2 energy           -75.775052591507
@ Step       Energy      Delta E   Gmax     Grms     Xrms     Xmax   Walltime
@ ---- ---------------- -------- -------- -------- -------- -------- --------
@    0     -75.77505259  0.0D+00  0.02474  0.02018  0.00000  0.00000     18.6
         Total SCF energy =    -75.627153964307
          Total MP2 energy           -75.776565606673
         Total SCF energy =    -75.627778690813
          Total MP2 energy           -75.776646960784
@    1     -75.77664696 -1.6D-03  0.00455  0.00290  0.02578  0.04887     26.5
         Total SCF energy =    -75.627674308268
          Total MP2 energy           -75.776677091048
         Total SCF energy =    -75.627694445022
          Total MP2 energy           -75.776677921835
@    2     -75.77667792 -3.1D-05  0.00010  0.00006  0.00302  0.00520     36.0
         Total SCF energy =    -75.627688269311
          Total MP2 energy           -75.776677936956
         Total SCF energy =    -75.627688269311
          Total MP2 energy           -75.776677936956
@    3     -75.77667794 -1.5D-08  0.00001  0.00001  0.00007  0.00015     43.2
@    3     -75.77667794 -1.5D-08  0.00001  0.00001  0.00007  0.00015     43.2

 Output coordinates in angstroms (scale by  1.889725989 to convert to a.u.)

  No.       Tag          Charge          X              Y              Z
 ---- ---------------- ---------- -------------- -------------- --------------
    1 O                    8.0000     0.05070736    -0.00000746     0.00000000
    2 H1                   1.0000    -0.52030911     0.82014545     0.00000000
    3 H2                   1.0000    -0.52034774    -0.82013799     0.00000000

 Zero-Point correction to Energy  =   12.140 kcal/mol  (  0.019346 au)
 Thermal correction to Energy     =   13.920 kcal/mol  (  0.022183 au)
 Thermal correction to Enthalpy   =   14.512 kcal/mol  (  0.023127 au)
 Total Entropy                    =   46.623 cal/mol-K
   - Translational                =   34.593 cal/mol-K (mol. weight =  18.0106)
   - Rotational                   =   12.018 cal/mol-K (symmetry #  =        1)
   - Vibrational                  =    0.013 cal/mol-K
   - Translational                  =    2.979 cal/mol-K
   - Rotational                     =    2.979 cal/mol-K
   - Vibrational                    =    0.079 cal/mol-K
 P.Frequency        0.00        0.00        0.00        0.00        0.00        0.00
 P.Frequency     1484.76     3460.03     3551.39

 Normal Eigenvalue ||           Projected Infra Red Intensities
  Mode   [cm**-1]  || [atomic units] [(debye/angs)**2] [(KM/mol)] [arbitrary]
 ------ ---------- || -------------- ----------------- ---------- -----------
    1        0.000 ||    0.196395           4.531       191.455      10.741
    2        0.000 ||    0.057967           1.337        56.509       3.170
    3        0.000 ||    0.000084           0.002         0.082       0.005
    4        0.000 ||    0.266540           6.149       259.836      14.578
    5        0.000 ||    0.266540           6.149       259.836      14.578
    6        0.000 ||    0.000452           0.010         0.441       0.025
    7     1484.757 ||    0.193391           4.462       188.527      10.577
    8     3460.033 ||    0.152664           3.522       148.825       8.350
    9     3551.387 ||    0.511530          11.801       498.664      27.977
 ----------------------------------------------------------------------------

 Total times  cpu:       63.3s     wall:      136.1s
