============================== echo of input deck ==============================
echo
start H2O_freq

charge 1

title "H2O+ : STO-3G UHF geometry optimization"
geometry units angstrom
 O  0.0 0.0 0.0
 H1 0.0 0.0 1.0
 H2 0.0 1.0 0.0
end

basis
 H* library sto-3g
 O library sto-3g
end

scf
 uhf; doublet
end

task scf optimize
task scf freq

title "H2O+ : 6-31g** UMP2 geometry optimization"

basis
 H* library 6-31g**
 O  library 6-31g**
end

mp2; print none; end
scf; print none; end
task mp2 optimize

title "H2O+ : 6-31g** UMP2 frequencies"
task mp2 freq

title "H3O+ STO-3G RHF geometry optimization"
geometry units angstrom
 O  0.0 0.0 0.0
 H1 0.0 0.0 1.0
 H2 0.0 1.0 0.0
 H3 0.0 1.0 1.0
end

basis
 H* library sto-3g
 O library sto-3g
end

scf
 rhf; singlet
 print default
end

task scf optimize

title "H3O+ 6-311++G** DFT geometry optimization"
basis
 H* library 6-311++g**
 O  library 6-311++g**
end

dft
  xc acm
end

task dft optimize
task dft freq

================================================================================

         Total SCF energy =    -74.653754522079
@ Step       Energy      Delta E   Gmax     Grms     Xrms     Xmax   Walltime
@ ---- ---------------- -------- -------- -------- -------- -------- --------
@    0     -74.65375452  0.0E+00  0.04782  0.04646  0.00000  0.00000      1.9
         Total SCF energy =    -74.663793754588
         Total SCF energy =    -74.664179087840
@    1     -74.66417909 -1.0E-02  0.02218  0.02113  0.08087  0.17101      3.8
         Total SCF energy =    -74.669354251032
         Total SCF energy =    -74.669517282036
@    2     -74.66951728 -5.3E-03  0.00875  0.00740  0.05746  0.12486      5.8
         Total SCF energy =    -74.669736247428
         Total SCF energy =    -74.669741178496
@    3     -74.66974118 -2.2E-04  0.00046  0.00043  0.01358  0.02799      7.7
         Total SCF energy =    -74.669743218899
         Total SCF energy =    -74.669743218899
@    4     -74.66974322 -2.0E-06  0.00003  0.00003  0.00125  0.00254      8.8
         Total SCF energy =    -74.669743223100
         Total SCF energy =    -74.669743223100
@    5     -74.66974322 -4.2E-09  0.00001  0.00001  0.00007  0.00015      9.8
@    5     -74.66974322 -4.2E-09  0.00001  0.00001  0.00007  0.00015      9.8
         Total SCF energy =    -74.669743225288
 Zero-Point correction to Energy  =   13.350 kcal/mol  (  0.021275 au)
 Thermal correction to Energy     =   15.129 kcal/mol  (  0.024109 au)
 Thermal correction to Enthalpy   =   15.721 kcal/mol  (  0.025053 au)
 Total Entropy                    =   46.819 cal/mol-K
   - Translational                =   34.593 cal/mol-K (mol. weight =  18.0106)
   - Rotational                   =   12.220 cal/mol-K (symmetry #  =        1)
   - Vibrational                  =    0.007 cal/mol-K
   - Translational                  =    2.979 cal/mol-K
   - Rotational                     =    2.979 cal/mol-K
   - Vibrational                    =    0.047 cal/mol-K
 P.Frequency        0.00        0.00        0.00        0.00        0.00        0.00
 P.Frequency     1629.30     3792.29     3921.59
@ Step       Energy      Delta E   Gmax     Grms     Xrms     Xmax   Walltime
@ ---- ---------------- -------- -------- -------- -------- -------- --------
@    0     -75.77505308  0.0E+00  0.02471  0.02018  0.00000  0.00000     25.3
@    1     -75.77665748 -1.6E-03  0.00172  0.00155  0.02875  0.05776     44.1
@    2     -75.77667602 -1.9E-05  0.00055  0.00048  0.00456  0.00924     62.1
@    3     -75.77667794 -1.9E-06  0.00000  0.00000  0.00123  0.00272     79.7
@    3     -75.77667794 -1.9E-06  0.00000  0.00000  0.00123  0.00272     79.7
 Zero-Point correction to Energy  =   12.140 kcal/mol  (  0.019347 au)
 Thermal correction to Energy     =   13.920 kcal/mol  (  0.022184 au)
 Thermal correction to Enthalpy   =   14.513 kcal/mol  (  0.023127 au)
 Total Entropy                    =   46.623 cal/mol-K
   - Translational                =   34.593 cal/mol-K (mol. weight =  18.0106)
   - Rotational                   =   12.018 cal/mol-K (symmetry #  =        1)
   - Vibrational                  =    0.013 cal/mol-K
   - Translational                  =    2.979 cal/mol-K
   - Rotational                     =    2.979 cal/mol-K
   - Vibrational                    =    0.079 cal/mol-K
 P.Frequency        0.00        0.00        0.00        0.00        0.00        0.00
 P.Frequency     1484.76     3460.15     3551.50
         Total SCF energy =    -75.043762236491
@ Step       Energy      Delta E   Gmax     Grms     Xrms     Xmax   Walltime
@ ---- ---------------- -------- -------- -------- -------- -------- --------
@    0     -75.04376224  0.0E+00  0.11330  0.07361  0.00000  0.00000    294.1
         Total SCF energy =    -75.061851984040
         Total SCF energy =    -75.068720650811
@    1     -75.06872065 -2.5E-02  0.05411  0.02916  0.13577  0.28833    295.8
         Total SCF energy =    -75.089603105304
         Total SCF energy =    -75.094044875944
@    2     -75.09404488 -2.5E-02  0.09276  0.04664  0.20787  0.40199    297.5
         Total SCF energy =    -75.117798417683
         Total SCF energy =    -75.123535272930
@    3     -75.12353527 -2.9E-02  0.02670  0.01639  0.13730  0.34180    299.0
         Total SCF energy =    -75.138859123513
         Total SCF energy =    -75.150054119218
@    4     -75.15005412 -2.7E-02  0.22472  0.11009  0.23369  0.47329    300.5
         Total SCF energy =    -75.199294439641
         Total SCF energy =    -75.199416254539
@    5     -75.19941625 -4.9E-02  0.17955  0.09098  0.12158  0.19105    301.8
         Total SCF energy =    -75.224984472714
         Total SCF energy =    -75.227167154799
@    6     -75.22716715 -2.8E-02  0.06621  0.04383  0.09745  0.24554    303.2
         Total SCF energy =    -75.250544426642
         Total SCF energy =    -75.258165184643
@    7     -75.25816518 -3.1E-02  0.10904  0.06258  0.16936  0.36670    304.6
         Total SCF energy =    -75.259289834305
         Total SCF energy =    -75.264805575603
@    8     -75.26480558 -6.6E-03  0.08099  0.05020  0.05902  0.14310    305.6
         Total SCF energy =    -75.261132538652
         Total SCF energy =    -75.267132753626
@    9     -75.26713275 -2.3E-03  0.05532  0.03573  0.01790  0.03391    306.9
         Total SCF energy =    -75.277648298307
         Total SCF energy =    -75.278417931710
@   10     -75.27841793 -1.1E-02  0.05997  0.04205  0.06556  0.17161    308.1
         Total SCF energy =    -75.292258414662
         Total SCF energy =    -75.300917587513
@   11     -75.30091759 -2.2E-02  0.14673  0.06330  0.13040  0.26857    309.4
         Total SCF energy =    -75.320760946066
         Total SCF energy =    -75.320760946066
@   12     -75.32076095 -2.0E-02  0.03565  0.02176  0.06689  0.13766    310.0
         Total SCF energy =    -75.327309911945
         Total SCF energy =    -75.327843600252
@   13     -75.32784360 -7.1E-03  0.01801  0.01156  0.06705  0.14541    311.1
         Total SCF energy =    -75.327701999154
         Total SCF energy =    -75.328358985157
@   14     -75.32835899 -5.2E-04  0.00557  0.00272  0.01544  0.03596    312.1
         Total SCF energy =    -75.328388639589
         Total SCF energy =    -75.328388639589
@   15     -75.32838864 -3.0E-05  0.00108  0.00077  0.00273  0.00674    312.9
         Total SCF energy =    -75.328391595630
         Total SCF energy =    -75.328391625177
@   16     -75.32839163 -3.0E-06  0.00004  0.00002  0.00066  0.00112    313.8
@   16     -75.32839163 -3.0E-06  0.00004  0.00002  0.00066  0.00112    313.8
         Total DFT energy =    -76.705668845294

 Vector   12  Occ=0.000000E+00  E=-7.582101E-02  Symmetry=a"

 Vector   13  Occ=0.000000E+00  E= 6.698696E-05  Symmetry=a'

 Vector   14  Occ=0.000000E+00  E= 7.301142E-05  Symmetry=a'

 Vector   15  Occ=0.000000E+00  E= 1.970501E-02  Symmetry=a'

 Vector   16  Occ=0.000000E+00  E= 2.383810E-01  Symmetry=a'

 Vector   17  Occ=0.000000E+00  E= 2.384320E-01  Symmetry=a'

 Vector   18  Occ=0.000000E+00  E= 2.451700E-01  Symmetry=a'

 Vector   19  Occ=0.000000E+00  E= 6.274924E-01  Symmetry=a'

@ Step       Energy      Delta E   Gmax     Grms     Xrms     Xmax   Walltime
@ ---- ---------------- -------- -------- -------- -------- -------- --------
@    0     -76.70566885  0.0E+00  0.00946  0.00638  0.00000  0.00000    348.3
         Total DFT energy =    -76.705928774570

 Vector    2  Occ=2.000000E+00  E=-1.448053E+00  Symmetry=a'

 Vector    3  Occ=2.000000E+00  E=-9.533153E-01  Symmetry=a'

 Vector    4  Occ=2.000000E+00  E=-9.532129E-01  Symmetry=a'

 Vector    5  Occ=2.000000E+00  E=-7.277094E-01  Symmetry=a"

 Vector    6  Occ=0.000000E+00  E=-2.681314E-01  Symmetry=a'

 Vector    7  Occ=0.000000E+00  E=-1.713684E-01  Symmetry=a'

 Vector    8  Occ=0.000000E+00  E=-1.713586E-01  Symmetry=a'

 Vector    9  Occ=0.000000E+00  E=-8.565789E-02  Symmetry=a'

 Vector   10  Occ=0.000000E+00  E=-8.559849E-02  Symmetry=a'

 Vector   11  Occ=0.000000E+00  E=-7.612400E-02  Symmetry=a"

 Vector   12  Occ=0.000000E+00  E=-7.526569E-02  Symmetry=a'

 Vector   13  Occ=0.000000E+00  E= 3.989731E-04  Symmetry=a'

 Vector   14  Occ=0.000000E+00  E= 4.251113E-04  Symmetry=a'

 Vector   15  Occ=0.000000E+00  E= 1.914054E-02  Symmetry=a'

 Vector   16  Occ=0.000000E+00  E= 2.399267E-01  Symmetry=a'

 Vector   17  Occ=0.000000E+00  E= 2.400497E-01  Symmetry=a'

 Vector   18  Occ=0.000000E+00  E= 2.479768E-01  Symmetry=a'

 Vector   19  Occ=0.000000E+00  E= 6.266881E-01  Symmetry=a'

         Total DFT energy =    -76.705945679864

 Vector    2  Occ=2.000000E+00  E=-1.449908E+00  Symmetry=a'

 Vector    3  Occ=2.000000E+00  E=-9.551172E-01  Symmetry=a'

 Vector    4  Occ=2.000000E+00  E=-9.549693E-01  Symmetry=a'

 Vector    5  Occ=2.000000E+00  E=-7.285947E-01  Symmetry=a"

 Vector    6  Occ=0.000000E+00  E=-2.673065E-01  Symmetry=a'

 Vector    7  Occ=0.000000E+00  E=-1.707502E-01  Symmetry=a'

 Vector    8  Occ=0.000000E+00  E=-1.707418E-01  Symmetry=a'

 Vector    9  Occ=0.000000E+00  E=-8.538028E-02  Symmetry=a'

 Vector   10  Occ=0.000000E+00  E=-8.529541E-02  Symmetry=a'

 Vector   11  Occ=0.000000E+00  E=-7.622929E-02  Symmetry=a"

 Vector   12  Occ=0.000000E+00  E=-7.477666E-02  Symmetry=a'

 Vector   13  Occ=0.000000E+00  E= 5.152676E-04  Symmetry=a'

 Vector   14  Occ=0.000000E+00  E= 5.513918E-04  Symmetry=a'

 Vector   15  Occ=0.000000E+00  E= 1.894079E-02  Symmetry=a'

 Vector   16  Occ=0.000000E+00  E= 2.404631E-01  Symmetry=a'

 Vector   17  Occ=0.000000E+00  E= 2.406407E-01  Symmetry=a'

 Vector   18  Occ=0.000000E+00  E= 2.489830E-01  Symmetry=a'

 Vector   19  Occ=0.000000E+00  E= 6.264073E-01  Symmetry=a'

@    1     -76.70594568 -2.8E-04  0.00015  0.00011  0.00983  0.01929    393.4
         Total DFT energy =    -76.705945840492

 Vector    2  Occ=2.000000E+00  E=-1.449801E+00  Symmetry=a'

 Vector    3  Occ=2.000000E+00  E=-9.549521E-01  Symmetry=a'

 Vector    4  Occ=2.000000E+00  E=-9.549232E-01  Symmetry=a'

 Vector    5  Occ=2.000000E+00  E=-7.285605E-01  Symmetry=a"

 Vector    6  Occ=0.000000E+00  E=-2.673681E-01  Symmetry=a'

 Vector    7  Occ=0.000000E+00  E=-1.707968E-01  Symmetry=a'

 Vector    8  Occ=0.000000E+00  E=-1.707909E-01  Symmetry=a'

 Vector    9  Occ=0.000000E+00  E=-8.536739E-02  Symmetry=a'

 Vector   10  Occ=0.000000E+00  E=-8.535141E-02  Symmetry=a'

 Vector   11  Occ=0.000000E+00  E=-7.622640E-02  Symmetry=a"

 Vector   12  Occ=0.000000E+00  E=-7.481334E-02  Symmetry=a'

 Vector   13  Occ=0.000000E+00  E= 5.183504E-04  Symmetry=a'

 Vector   14  Occ=0.000000E+00  E= 5.259779E-04  Symmetry=a'

 Vector   15  Occ=0.000000E+00  E= 1.895252E-02  Symmetry=a'

 Vector   16  Occ=0.000000E+00  E= 2.404933E-01  Symmetry=a'

 Vector   17  Occ=0.000000E+00  E= 2.405260E-01  Symmetry=a'

 Vector   18  Occ=0.000000E+00  E= 2.489079E-01  Symmetry=a'

 Vector   19  Occ=0.000000E+00  E= 6.264689E-01  Symmetry=a'

         Total DFT energy =    -76.705945840492
@    2     -76.70594584 -1.6E-07  0.00004  0.00002  0.00031  0.00067    415.8
@    2     -76.70594584 -1.6E-07  0.00004  0.00002  0.00031  0.00067    415.8

 Output coordinates in angstroms (scale by  1.889725989 to convert to a.u.)

  No.       Tag          Charge          X              Y              Z
 ---- ---------------- ---------- -------------- -------------- --------------
    1 O                    8.0000    -0.00003198     0.44998239     0.00000000
    2 H1                   1.0000     0.85319160    -0.01751044     0.00000000
    3 H2                   1.0000    -0.83150012    -0.05525258     0.00000000
    4 H3                   1.0000    -0.02165950     1.42268881     0.00000000

         Total DFT energy =    -76.705943976899

                       DFT Final Molecular Orbital Analysis
                       ------------------------------------

 Vector    2  Occ=2.000000E+00  E=-1.449777E+00

 Vector    3  Occ=2.000000E+00  E=-9.549311E-01

 Vector    4  Occ=2.000000E+00  E=-9.549037E-01

 Vector    5  Occ=2.000000E+00  E=-7.285328E-01

 Vector    6  Occ=0.000000E+00  E=-2.673648E-01

 Vector    7  Occ=0.000000E+00  E=-1.707944E-01

 Vector    8  Occ=0.000000E+00  E=-1.707888E-01

 Vector    9  Occ=0.000000E+00  E=-8.536959E-02

 Vector   10  Occ=0.000000E+00  E=-8.535335E-02

 Vector   11  Occ=0.000000E+00  E=-7.622190E-02

 Vector   12  Occ=0.000000E+00  E=-7.481893E-02

 Vector   13  Occ=0.000000E+00  E= 5.002290E-04

 Vector   14  Occ=0.000000E+00  E= 5.077616E-04

 Vector   15  Occ=0.000000E+00  E= 1.895124E-02

 Vector   16  Occ=0.000000E+00  E= 2.404927E-01

 Vector   17  Occ=0.000000E+00  E= 2.405258E-01

 Vector   18  Occ=0.000000E+00  E= 2.489066E-01

 Vector   19  Occ=0.000000E+00  E= 6.264764E-01

     Multipole analysis of the density
     ---------------------------------

     L   x y z        total         alpha         beta         nuclear
     -   - - -        -----         -----         ----         -------
     0   0 0 0      1.000000     -5.000000     -5.000000     11.000000

     1   1 0 0      0.000013      0.000218      0.000218     -0.000423
     1   0 1 0      0.850343     -4.251697     -4.251697      9.353737
     1   0 0 1      0.000000      0.000000      0.000000      0.000000

     2   2 0 0     -1.577200     -3.323694     -3.323694      5.070188
     2   1 1 0      0.000424      0.000082      0.000082      0.000260
     2   1 0 1      0.000000      0.000000      0.000000      0.000000
     2   0 2 0     -0.853709     -6.939183     -6.939183     13.024657
     2   0 1 1      0.000000      0.000000      0.000000      0.000000

 Zero-Point correction to Energy  =   20.676 kcal/mol  (  0.032949 au)
 Thermal correction to Energy     =   22.456 kcal/mol  (  0.035787 au)
 Thermal correction to Enthalpy   =   23.049 kcal/mol  (  0.036730 au)
 Total Entropy                    =   48.117 cal/mol-K
   - Translational                =   34.755 cal/mol-K (mol. weight =  19.0184)
   - Rotational                   =   13.348 cal/mol-K (symmetry #  =        1)
   - Vibrational                  =    0.014 cal/mol-K
   - Translational                  =    2.979 cal/mol-K
   - Rotational                     =    2.979 cal/mol-K
   - Vibrational                    =    0.097 cal/mol-K
 P.Frequency     -569.83        0.00        0.00        0.00        0.00        0.00
 P.Frequency        0.00     1621.81     1621.97     3646.86     3789.53     3789.83

 Normal Eigenvalue ||           Projected Infra Red Intensities
  Mode   [cm**-1]  || [atomic units] [(debye/angs)**2] [(KM/mol)] [arbitrary]
 ------ ---------- || -------------- ----------------- ---------- -----------
    1     -569.829 ||    0.709115          16.360       691.280      35.162
    2        0.000 ||    0.039896           0.920        38.893       1.978
    3        0.000 ||    0.008815           0.203         8.594       0.437
    4        0.000 ||    0.003869           0.089         3.772       0.192
    5        0.000 ||    0.042545           0.982        41.475       2.110
    6        0.000 ||    0.012399           0.286        12.087       0.615
    7        0.000 ||    0.050218           1.159        48.955       2.490
    8     1621.814 ||    0.149565           3.451       145.804       7.416
    9     1621.969 ||    0.149510           3.449       145.750       7.414
   10     3646.860 ||    0.000002           0.000         0.002       0.000
   11     3789.529 ||    0.627158          14.469       611.385      31.099
   12     3789.832 ||    0.626923          14.464       611.156      31.087
 ----------------------------------------------------------------------------

 Total times  cpu:     1509.9s     wall:     1719.2s
