         Total SCF energy =    -76.027357197047

 Vector    2  Occ=2.000000D+00  E=-1.341395D+00  Symmetry=a1

 Vector    3  Occ=2.000000D+00  E=-7.070939D-01  Symmetry=b1

 Vector    4  Occ=2.000000D+00  E=-5.666655D-01  Symmetry=a1

 Vector    5  Occ=2.000000D+00  E=-4.938948D-01  Symmetry=b2

 Vector    6  Occ=0.000000D+00  E= 1.852941D-01  Symmetry=a1

 Vector    7  Occ=0.000000D+00  E= 2.574489D-01  Symmetry=b1

 Vector    8  Occ=0.000000D+00  E= 8.002211D-01  Symmetry=b1

 Vector    9  Occ=0.000000D+00  E= 8.592832D-01  Symmetry=a1

 Vector   10  Occ=0.000000D+00  E= 1.157607D+00  Symmetry=a1

 Vector   11  Occ=0.000000D+00  E= 1.200301D+00  Symmetry=b2

 Vector   12  Occ=0.000000D+00  E= 1.251451D+00  Symmetry=b1

 Vector   13  Occ=0.000000D+00  E= 1.430195D+00  Symmetry=a1

 Vector   14  Occ=0.000000D+00  E= 1.475491D+00  Symmetry=a2

 Vector   15  Occ=0.000000D+00  E= 1.682374D+00  Symmetry=b2

@ Step       Energy      Delta E   Gmax     Grms     Xrms     Xmax   Walltime
@ ---- ---------------- -------- -------- -------- -------- -------- --------
@    0     -76.02735720  0.0D+00  0.00177  0.00143  0.00000  0.00000      0.9
         Total SCF energy =    -76.027385956942

 Vector    2  Occ=2.000000D+00  E=-1.343201D+00  Symmetry=a1

 Vector    3  Occ=2.000000D+00  E=-7.059425D-01  Symmetry=b1

 Vector    4  Occ=2.000000D+00  E=-5.692422D-01  Symmetry=a1

 Vector    5  Occ=2.000000D+00  E=-4.944201D-01  Symmetry=b2

 Vector    6  Occ=0.000000D+00  E= 1.853599D-01  Symmetry=a1

 Vector    7  Occ=0.000000D+00  E= 2.578459D-01  Symmetry=b1

 Vector    8  Occ=0.000000D+00  E= 7.976441D-01  Symmetry=b1

 Vector    9  Occ=0.000000D+00  E= 8.660816D-01  Symmetry=a1

 Vector   10  Occ=0.000000D+00  E= 1.158041D+00  Symmetry=a1

 Vector   11  Occ=0.000000D+00  E= 1.200007D+00  Symmetry=b2

 Vector   12  Occ=0.000000D+00  E= 1.252469D+00  Symmetry=b1

 Vector   13  Occ=0.000000D+00  E= 1.422017D+00  Symmetry=a1

 Vector   14  Occ=0.000000D+00  E= 1.479566D+00  Symmetry=a2

 Vector   15  Occ=0.000000D+00  E= 1.676571D+00  Symmetry=b2

         Total SCF energy =    -76.027387151383

 Vector    2  Occ=2.000000D+00  E=-1.342903D+00  Symmetry=a1

 Vector    3  Occ=2.000000D+00  E=-7.061356D-01  Symmetry=b1

 Vector    4  Occ=2.000000D+00  E=-5.688179D-01  Symmetry=a1

 Vector    5  Occ=2.000000D+00  E=-4.943350D-01  Symmetry=b2

 Vector    6  Occ=0.000000D+00  E= 1.853505D-01  Symmetry=a1

 Vector    7  Occ=0.000000D+00  E= 2.577801D-01  Symmetry=b1

 Vector    8  Occ=0.000000D+00  E= 7.980617D-01  Symmetry=b1

 Vector    9  Occ=0.000000D+00  E= 8.649654D-01  Symmetry=a1

 Vector   10  Occ=0.000000D+00  E= 1.157959D+00  Symmetry=a1

 Vector   11  Occ=0.000000D+00  E= 1.200055D+00  Symmetry=b2

 Vector   12  Occ=0.000000D+00  E= 1.252301D+00  Symmetry=b1

 Vector   13  Occ=0.000000D+00  E= 1.423386D+00  Symmetry=a1

 Vector   14  Occ=0.000000D+00  E= 1.478886D+00  Symmetry=a2

 Vector   15  Occ=0.000000D+00  E= 1.677536D+00  Symmetry=b2

@    1     -76.02738715 -3.0D-05  0.00096  0.00079  0.00575  0.01088      1.6
         Total SCF energy =    -76.027388797084

 Vector    2  Occ=2.000000D+00  E=-1.342414D+00  Symmetry=a1

 Vector    3  Occ=2.000000D+00  E=-7.050898D-01  Symmetry=b1

 Vector    4  Occ=2.000000D+00  E=-5.689854D-01  Symmetry=a1

 Vector    5  Occ=2.000000D+00  E=-4.943102D-01  Symmetry=b2

 Vector    6  Occ=0.000000D+00  E= 1.851060D-01  Symmetry=a1

 Vector    7  Occ=0.000000D+00  E= 2.576331D-01  Symmetry=b1

 Vector    8  Occ=0.000000D+00  E= 7.964758D-01  Symmetry=b1

 Vector    9  Occ=0.000000D+00  E= 8.646549D-01  Symmetry=a1

 Vector   10  Occ=0.000000D+00  E= 1.158177D+00  Symmetry=a1

 Vector   11  Occ=0.000000D+00  E= 1.200020D+00  Symmetry=b2

 Vector   12  Occ=0.000000D+00  E= 1.252555D+00  Symmetry=b1

 Vector   13  Occ=0.000000D+00  E= 1.422044D+00  Symmetry=a1

 Vector   14  Occ=0.000000D+00  E= 1.479187D+00  Symmetry=a2

 Vector   15  Occ=0.000000D+00  E= 1.676174D+00  Symmetry=b2

         Total SCF energy =    -76.027389124502

 Vector    2  Occ=2.000000D+00  E=-1.342556D+00  Symmetry=a1

 Vector    3  Occ=2.000000D+00  E=-7.053932D-01  Symmetry=b1

 Vector    4  Occ=2.000000D+00  E=-5.689361D-01  Symmetry=a1

 Vector    5  Occ=2.000000D+00  E=-4.943175D-01  Symmetry=b2

 Vector    6  Occ=0.000000D+00  E= 1.851771D-01  Symmetry=a1

 Vector    7  Occ=0.000000D+00  E= 2.576757D-01  Symmetry=b1

 Vector    8  Occ=0.000000D+00  E= 7.969346D-01  Symmetry=b1

 Vector    9  Occ=0.000000D+00  E= 8.647455D-01  Symmetry=a1

 Vector   10  Occ=0.000000D+00  E= 1.158114D+00  Symmetry=a1

 Vector   11  Occ=0.000000D+00  E= 1.200030D+00  Symmetry=b2

 Vector   12  Occ=0.000000D+00  E= 1.252481D+00  Symmetry=b1

 Vector   13  Occ=0.000000D+00  E= 1.422433D+00  Symmetry=a1

 Vector   14  Occ=0.000000D+00  E= 1.479100D+00  Symmetry=a2

 Vector   15  Occ=0.000000D+00  E= 1.676568D+00  Symmetry=b2

       Multipole analysis of the density wrt the origin
       ------------------------------------------------

     L   x y z        total         open         nuclear
     -   - - -        -----         ----         -------
     0   0 0 0      0.000000      0.000000     10.000000

     1   1 0 0      0.000000      0.000000      0.000000
     1   0 1 0      0.000000      0.000000      0.000000
     1   0 0 1      0.805210      0.000000     -0.057396

     2   2 0 0     -3.089149      0.000000      3.998954
     2   1 1 0      0.000000      0.000000      0.000000
     2   1 0 1      0.000000      0.000000      0.000000
     2   0 2 0     -5.210909      0.000000      0.000000
     2   0 1 1      0.000000      0.000000      0.000000

@    2     -76.02738912 -2.0D-06  0.00000  0.00000  0.00073  0.00179      2.4
@    2     -76.02738912 -2.0D-06  0.00000  0.00000  0.00073  0.00179      2.4

 Output coordinates in angstroms (scale by  1.889725989 to convert to a.u.)

  No.       Tag          Charge          X              Y              Z
 ---- ---------------- ---------- -------------- -------------- --------------
    1 O                    8.0000     0.00000000     0.00000000    -0.11893892
    2 H                    1.0000    -0.74827178     0.00000000     0.46056946
    3 H                    1.0000     0.74827178     0.00000000     0.46056946

 Total times  cpu:        1.7s     wall:        2.4s
